Position data for ZrC system

        64      atoms
        2       atom types
   0.000000000000000    9.70000000      xlo xhi
   0.000000000000000    9.70000000      ylo yhi
   0.000000000000000    9.70000000      zlo zhi

 Atoms

1	1	9.41745064	9.545887079	9.55206433
2	1	5.042829501	9.579557816	9.610372679
3	1	0.091967737	4.820574759	0.095354686
4	1	4.868385574	4.97153421	0.175153967
5	1	0.210238576	0.04371208	4.867135244
6	1	4.625862876	9.563796674	4.774415078
7	1	9.620710745	4.863635969	4.819276608
8	1	5.090289758	4.772207067	5.082687868
9	1	2.337506291	0.093617319	2.700636946
10	1	7.356611241	0.382124225	2.509425793
11	1	2.653551109	4.954298959	2.539693673
12	1	7.351956308	4.708021488	2.691674437
13	1	2.190672153	9.34323206	7.053539591
14	1	7.217738669	9.670215471	6.996865013
15	1	1.984108131	4.699949342	7.266600673
16	1	7.403075211	4.92725177	7.503132554
17	1	2.523805267	2.050841027	9.56578983
18	1	7.23077285	2.513411426	9.69684265
19	1	2.42966958	7.254707794	0.106402307
20	1	7.136586723	7.216353994	9.662784883
21	1	2.31273802	2.745815569	4.597617058
22	1	7.201468568	2.510504239	5.243377777
23	1	2.259928504	7.243318151	4.622395708
24	1	7.500119637	7.326864154	4.704795171
25	1	0.180755329	2.560360881	2.389525548
26	1	4.88494716	2.772833658	2.390208137
27	1	0.339745701	7.131049769	2.110362555
28	1	4.745657585	7.374096461	2.719516347
29	1	0.050769024	2.668370187	7.267569218
30	1	4.785507998	2.244770023	7.137184049
31	1	9.675785211	6.915418672	7.125776364
32	1	4.969691501	7.193566269	7.373817004
33	2	2.123156079	9.68599029	0.02101796
34	2	6.98912451	0.372760039	9.616373487
35	2	2.178661904	4.80201992	0.408093938
36	2	7.221875137	4.793939432	9.693291383
37	2	2.377174635	9.629811479	4.892935692
38	2	7.448748728	9.576354973	4.460085802
39	2	2.393787728	4.95943152	4.855802249
40	2	7.254934483	5.270604707	4.856027677
41	2	0.062306495	0.170670627	2.490212324
42	2	4.831413151	0.305517311	2.388706383
43	2	0.176779008	5.039141464	2.661760025
44	2	4.683874502	4.807779683	2.572007477
45	2	0.14344166	0.283567181	7.134073744
46	2	4.865349086	9.608105304	7.436471438
47	2	9.586003757	4.824212259	7.313081036
48	2	4.851539002	4.736983069	7.153844284
49	2	9.541883986	2.65777381	0.072514872
50	2	4.766671568	2.582538864	9.692643908
51	2	0.004584026	7.383631658	9.532612532
52	2	4.601834812	7.215757929	0.186545065
53	2	0.405128842	2.353154622	4.635230457
54	2	5.22272056	2.235231625	4.932089257
55	2	9.57236449	7.251932624	4.453935711
56	2	4.762229647	7.300552904	5.242124343
57	2	2.317058303	2.346349975	1.874430134
58	2	7.443567861	2.473980247	2.399796878
59	2	2.767613991	7.132818952	2.358027805
60	2	6.863017332	7.499712334	2.185955043
61	2	2.382663477	2.525300813	7.303440109
62	2	7.423063807	2.688306694	7.128665024
63	2	1.861232314	7.034296052	7.477929335
64	2	6.926280635	7.460161748	7.375381323

